<?xml version="1.0"?>
<VTKFile type="UnstructuredGrid"  version="0.1"  >
<UnstructuredGrid>
<Piece  NumberOfPoints="143" NumberOfCells="244">
<Points>
<DataArray  type="Float64"  NumberOfComponents="3"  format="ascii">0 0 0  1 0 0  1 1 0  0 1 0  0.1 0 0  0.2 0 0  0.3 0 0  0.4 0 0  0.5 0 0  0.6 0 0  0.7 0 0  0.8 0 0  0.9 0 0  1 0.1 0  1 0.2 0  1 0.3 0  1 0.4 0  1 0.5 0  1 0.6 0  1 0.7 0  1 0.8 0  1 0.9 0  0.9 1 0  0.8 1 0  0.7 1 0  0.6 1 0  0.5 1 0  0.4 1 0  0.3 1 0  0.2 1 0  0.09999999999999998 1 0  0 0.9 0  0 0.8 0  0 0.7 0  0 0.6 0  0 0.5 0  0 0.4 0  0 0.3 0  0 0.2 0  0 0.09999999999999998 0  0.4503351224248816 0.08552481249556204 0  0.09500008811816107 0.5360897063089832 0  0.9063935249342201 0.537145319981809 0  0.55 0.9166917272975406 0  0.91114569792819 0.3490798000983429 0  0.35 0.9133974596215562 0  0.08857995134062496 0.3487241095150169 0  0.6499999999999999 0.08660254037844384 0  0.9112749022350891 0.7479584671629046 0  0.088725097764911 0.7479584671629047 0  0.2451447489684856 0.08548460834199284 0  0.7468074574736496 0.9199358737117771 0  0.9094302752559206 0.1591825619057402 0  0.1554440545894302 0.90450471718976 0  0.08758815375096685 0.1626736524781356 0  0.7491826982387223 0.08613067098656113 0  0.6998637830397869 0.1731264358582406 0  0.6003124195981794 0.172998490251563 0  0.6500293671063276 0.2597600819013363 0  0.5496010876875002 0.258259027439642 0  0.5999384091323046 0.3461441393588278 0  0.4991322502818349 0.34479496982175 0  0.5498451099023567 0.432699166251057 0  0.4498295600306987 0.432691247336688 0  0.499945778322176 0.519509410571214 0  0.399962556392146 0.519544027894833 0  0.4499847224523871 0.6061882749698936 0  0.5500000000000002 0.6062177826491068 0  0.3981699911798018 0.3421448384747821 0  0.3499912131407558 0.6062009956399329 0  0.6504151676730731 0.4334029021886231 0  0.2999922949221505 0.5196005753731624 0  0.5000000000000002 0.6928203230275506 0  0.6024696364759698 0.6913944777433488 0  0.650351251459678 0.6060149875243084 0  0.7004701479892746 0.6925488829593838 0  0.2517921705869302 0.6051762432231433 0  0.3002972306212813 0.6926439352883611 0  0.749982191691019 0.2597865904465578 0  0.6510785716302883 0.7764264786991393 0  0.7488523726308915 0.6060769153125546 0  0.7482031549002423 0.7780813375189195 0  0.1857376109991593 0.6964336856568495 0  0.2510426882265808 0.7784885775374529 0  0.3494152653404855 0.7773080385904216 0  0.2000000000000003 0.519615242270663 0  0.2499406255998663 0.4312271595695958 0  0.1501368126248408 0.437059150442781 0  0.1950095190762369 0.3447790471332911 0  0.1418742148749302 0.2584325382393272 0  0.2408762755976475 0.2545762356448718 0  0.2957928439171839 0.3417051096516432 0  0.3430126520464472 0.2520803605891457 0  0.4469889271941336 0.2541110587333831 0  0.1872668993737559 0.1707679442206392 0  0.8005925229429638 0.1703008673932631 0  0.8504956416321799 0.256940270486009 0  0.8031086100613921 0.3471175779651131 0  0.8526547399563118 0.4386124102993693 0  0.7530696147216799 0.435724386931341 0  0.8043381969704533 0.5218429415829291 0  0.8140768688967178 0.6968442762066266 0  0.8440998679068055 0.905438776345506 0  0.2540998849579222 0.9184537499731443 0  0.5504430460953917 0.08619500429152593 0  0.6497285252953784 0.917582283609037 0  0.08660254037844384 0.65 0  0.3464779113497943 0.08522492645217133 0  0.9133974596215562 0.6499999999999999 0  0.6 0.5196152422706629 0  0.45 0.9172407719102045 0  0.5000000000000001 0.8447981888678917 0  0.3489479786736412 0.4311521597167841 0  0.3974784354498487 0.691004893202824 0  0.7010905600642994 0.3469892797986332 0  0.6996378722820977 0.5198243168060747 0  0.4996134338333478 0.1708313341340957 0  0.3949692739256672 0.1700355031144888 0  0.9200321612001887 0.8466710755448443 0  0.8469322940855144 0.08212742365566733 0  0.0798918258825172 0.8465153990188867 0  0.1529066849027919 0.08226153084753574 0  0.2902235706374707 0.1704793858858916 0  0.1619767221838744 0.7998342905175433 0  0.8380232778161258 0.7998342905175431 0  0.1607695154586737 0.5999999999999999 0  0.8376702796030757 0.6026756475762974 0  0.54812173154174 0.7704779642229556 0  0.445172936556918 0.7706015039633981 0  0.06739813862087013 0.4485356604678666 0  0.6989875075550751 0.8466937105241275 0  0.934214322963258 0.2530405264980184 0  0.3010287854749368 0.8465037658909754 0  0.3992694978953901 0.8449749548074079 0  0.6 0.8465605252990185 0  0.9347437364684013 0.45 0  0.06187004362063619 0.25 0  0.9267949192431122 0.07320508075688775 0  0.07320508075688764 0.07320508075688764 0  0.9267949192431123 0.9267949192431123 0  0.07320508075688764 0.9267949192431124 0  0.7752242531303797 0.8499967977235746 0  0.2231289493927071 0.8486579177337752 0  </DataArray>
</Points>
<Cells>
<DataArray  type="UInt32"  Name="connectivity"  format="ascii">41 85 87  49 82 106  48 101 108  42 98 100  52 95 96  41 87 129  72 127 128  111 127 128  48 101 124  49 82 123  42 98 135  54 89 94  52 96 131  68 92 93  44 96 97  107 117 122  54 89 136  68 91 92  44 97 98  46 88 89  82 106 125  86 91 112  46 87 88  101 108 126  52 95 119  59 61 93  61 68 93  92 117 122  68 91 112  86 88 91  81 101 124  82 83 123  41 85 125  70 99 114  102 118 124  53 120 123  88 89 90  97 98 99  80 100 115  97 99 114  99 100 115  59 93 116  50 107 122  70 99 115  98 99 100  89 90 94  88 90 91  44 96 131  50 94 121  90 91 92  42 100 126  50 94 122  28 45 103  28 29 103  57 58 59  78 95 96  9 47 104  34 41 106  56 57 58  58 59 60  64 66 67  67 72 73  71 76 85  6 7 107  9 10 47  10 47 55  34 35 41  15 16 44  18 19 108  19 20 48  19 48 108  22 23 102  23 24 51  24 51 105  25 26 43  25 43 105  26 43 110  29 53 103  43 110 111  47 55 56  73 74 75  73 75 79  75 79 81  75 80 101  75 81 101  8 40 104  10 11 55  32 33 49  56 78 95  59 60 61  61 62 63  62 70 109  64 67 109  67 74 109  69 76 77  71 86 112  5 6 50  7 8 40  13 14 52  36 37 46  47 57 104  55 56 95  63 64 65  65 66 69  71 85 86  38 39 54  56 58 78  60 62 70  61 63 68  62 64 109  63 65 112  67 73 74  76 77 82  77 84 113  78 96 97  85 86 87  6 50 107  7 40 107  26 27 110  27 28 45  29 30 53  33 49 106  62 63 64  63 68 112  65 71 112  74 75 80  78 97 114  8 9 104  86 87 88  60 61 62  60 70 114  66 67 72  66 72 113  69 71 76  33 34 106  47 56 57  58 60 114  65 69 71  69 77 113  77 83 84  17 18 42  23 51 102  24 25 105  27 45 110  18 42 108  64 65 66  66 69 113  77 82 83  58 78 114  70 109 115  74 80 115  74 109 115  102 124 141  53 123 142  40 104 116  57 59 116  40 116 117  92 93 117  57 104 116  93 116 117  31 32 120  11 12 119  20 21 118  55 95 119  46 87 129  4 5 121  5 50 121  90 94 122  44 98 135  76 82 125  40 107 117  46 89 136  11 55 119  32 49 120  20 48 118  54 94 121  72 73 127  72 113 128  35 41 129  36 46 129  15 44 131  14 52 131  110 111 133  43 111 134  17 42 135  16 44 135  38 54 136  37 46 136  80 101 126  1 12 137  1 13 137  0 4 138  0 39 138  2 21 139  2 22 139  3 30 140  3 31 140  90 92 122  42 108 126  76 85 125  41 106 125  80 100 126  49 120 123  48 118 124  53 103 142  51 102 141  111 128 133  111 127 134  84 113 128  73 79 127  35 36 129  79 130 134  84 132 133  45 103 132  14 15 131  51 105 130  79 81 130  83 84 132  105 130 134  45 132 133  43 105 134  45 110 133  16 17 135  12 119 137  31 120 140  21 118 139  37 38 136  13 52 137  30 53 140  39 54 138  22 102 139  4 121 138  102 118 139  53 120 140  52 119 137  54 121 138  79 127 134  84 128 133  83 123 142  81 124 141  103 132 142  81 130 141  83 132 142  51 130 141  </DataArray>
<DataArray  type="UInt32"  Name="offsets"  format="ascii">3 6 9 12 15 18 21 24 27 30 33 36 39 42 45 48 51 54 57 60 63 66 69 72 75 78 81 84 87 90 93 96 99 102 105 108 111 114 117 120 123 126 129 132 135 138 141 144 147 150 153 156 159 162 165 168 171 174 177 180 183 186 189 192 195 198 201 204 207 210 213 216 219 222 225 228 231 234 237 240 243 246 249 252 255 258 261 264 267 270 273 276 279 282 285 288 291 294 297 300 303 306 309 312 315 318 321 324 327 330 333 336 339 342 345 348 351 354 357 360 363 366 369 372 375 378 381 384 387 390 393 396 399 402 405 408 411 414 417 420 423 426 429 432 435 438 441 444 447 450 453 456 459 462 465 468 471 474 477 480 483 486 489 492 495 498 501 504 507 510 513 516 519 522 525 528 531 534 537 540 543 546 549 552 555 558 561 564 567 570 573 576 579 582 585 588 591 594 597 600 603 606 609 612 615 618 621 624 627 630 633 636 639 642 645 648 651 654 657 660 663 666 669 672 675 678 681 684 687 690 693 696 699 702 705 708 711 714 717 720 723 726 729 732 </DataArray>
<DataArray  type="UInt8"  Name="types"  format="ascii">5 5 5 5 5 5 5 5 5 5 5 5 5 5 5 5 5 5 5 5 5 5 5 5 5 5 5 5 5 5 5 5 5 5 5 5 5 5 5 5 5 5 5 5 5 5 5 5 5 5 5 5 5 5 5 5 5 5 5 5 5 5 5 5 5 5 5 5 5 5 5 5 5 5 5 5 5 5 5 5 5 5 5 5 5 5 5 5 5 5 5 5 5 5 5 5 5 5 5 5 5 5 5 5 5 5 5 5 5 5 5 5 5 5 5 5 5 5 5 5 5 5 5 5 5 5 5 5 5 5 5 5 5 5 5 5 5 5 5 5 5 5 5 5 5 5 5 5 5 5 5 5 5 5 5 5 5 5 5 5 5 5 5 5 5 5 5 5 5 5 5 5 5 5 5 5 5 5 5 5 5 5 5 5 5 5 5 5 5 5 5 5 5 5 5 5 5 5 5 5 5 5 5 5 5 5 5 5 5 5 5 5 5 5 5 5 5 5 5 5 5 5 5 5 5 5 5 5 5 5 5 5 5 5 5 5 5 5 5 5 5 5 5 5 </DataArray>
</Cells>
<CellData  Scalars="f_170"> 
<DataArray  type="Float64"  Name="f_170"  format="ascii">1.0665076971054077e-01   -2.8779078274965286e-02   -5.9465385973453522e-02   1.5671178698539734e-02   1.5525636076927185e-01   1.2832967936992645e-01   -1.2595623731613159e-01   -1.7172892391681671e-01   -8.7966024875640869e-02   -5.9167012572288513e-02   1.6335561871528625e-02   3.6748850345611572e-01   1.0141266882419586e-01   2.6891383528709412e-01   8.8124714791774750e-02   4.1015878319740295e-01   3.4324195981025696e-01   2.5027722120285034e-01   6.2864825129508972e-02   2.5594377517700195e-01   -1.1966079473495483e-03   1.7733545601367950e-01   2.0774078369140625e-01   -4.4166609644889832e-02   1.9832681119441986e-01   2.4655665457248688e-01   2.3149684071540833e-01   3.5543665289878845e-01   1.9791197776794434e-01   2.0584379136562347e-01   -1.1326292902231216e-01   -7.7518522739410400e-02   6.4892932772636414e-02   9.9798753857612610e-02   -1.4180570840835571e-01   -1.0069747269153595e-01   2.8717321157455444e-01   6.5864413976669312e-02   3.1829376239329576e-03   1.0156667232513428e-01   3.5795480012893677e-02   2.9727903008460999e-01   4.4286221265792847e-01   6.3129715621471405e-02   4.0662355720996857e-02   3.3953016996383667e-01   2.5675106048583984e-01   7.6080001890659332e-02   4.5296633243560791e-01   2.7943146228790283e-01   -4.6101585030555725e-03   4.1997832059860229e-01   -2.8258591890335083e-01   -2.9636004567146301e-01   2.6839220523834229e-01   1.6881869733333588e-01   4.3330514430999756e-01   3.5967119038105011e-02   2.7297866344451904e-01   2.1757060289382935e-01   1.2342775240540504e-02   -6.3212171196937561e-02   6.0878634452819824e-02   5.2506363391876221e-01   4.4735258817672729e-01   3.9080020785331726e-01   7.2483845055103302e-02   1.9232600927352905e-02   -2.1328769624233246e-02   -3.6390721797943115e-02   -3.9999950677156448e-02   -2.6346200704574585e-01   -3.2772386074066162e-01   -3.0501115322113037e-01   -3.5377743840217590e-01   -3.2416853308677673e-01   -3.2173505425453186e-01   -2.2591850161552429e-01   -2.6745548844337463e-01   3.2766580581665039e-01   -6.5821975469589233e-02   -1.1189205944538116e-01   -1.2534417212009430e-01   -6.1537422239780426e-02   -9.9730700254440308e-02   4.6409732103347778e-01   3.9783877134323120e-01   -5.1702275872230530e-02   2.2011074423789978e-01   2.0829819142818451e-01   1.4919841289520264e-01   8.2927614450454712e-02   2.6813033968210220e-02   -1.1273771524429321e-03   -8.7217204272747040e-03   1.2832827866077423e-01   5.3665649890899658e-01   5.0607836246490479e-01   5.4328210651874542e-02   2.2721362113952637e-01   3.7310436367988586e-01   2.7135184407234192e-01   8.6336351931095123e-02   2.1419052034616470e-02   1.0519164800643921e-01   4.1075912117958069e-01   2.2639986872673035e-01   1.2588886916637421e-01   1.8277192115783691e-01   6.9169946014881134e-02   1.1550356447696686e-01   -4.7522250562906265e-02   -2.3369234055280685e-02   -8.8290512561798096e-02   1.3480404019355774e-01   1.3564921915531158e-01   5.0057148933410645e-01   4.8944342136383057e-01   -3.4956106543540955e-01   -3.2608965039253235e-01   -2.2194676101207733e-01   -2.9256045818328857e-02   1.0031640529632568e-01   1.6585670411586761e-01   1.0190920531749725e-01   -4.7478850930929184e-02   1.3611364364624023e-01   4.8580628633499146e-01   1.8124368786811829e-01   1.6189227998256683e-01   1.3220468163490295e-01   -3.5297255963087082e-02   -5.1701162010431290e-02   3.5836588591337204e-02   -1.9680447876453400e-03   3.2661285996437073e-01   1.7808543145656586e-01   5.4724633693695068e-02   -3.8734108209609985e-02   -9.8605595529079437e-02   -6.4983516931533813e-03   -2.6739090681076050e-01   -3.4877583384513855e-01   -3.0966508388519287e-01   -1.4227420091629028e-02   3.9832357317209244e-02   -2.1914685145020485e-02   -6.4337506890296936e-02   1.8100801110267639e-01   5.2948907017707825e-02   -1.0446138679981232e-02   1.4059707522392273e-02   -1.6864426434040070e-01   -1.2958753108978271e-01   4.0611100196838379e-01   3.0850577354431152e-01   3.9228221774101257e-01   3.1957122683525085e-01   3.6543682217597961e-01   3.3864536881446838e-01   -6.0644388198852539e-02   3.2313370704650879e-01   -4.8972442746162415e-02   2.6803424954414368e-01   1.7875140905380249e-01   5.3827834129333496e-01   5.0810992717742920e-01   3.6283540725708008e-01   3.5007089376449585e-02   7.4606984853744507e-03   4.2720672488212585e-01   2.8719863295555115e-01   3.2959532737731934e-01   -6.0381479561328888e-02   -6.5271928906440735e-02   4.2770287394523621e-01   -1.0546104609966278e-01   -9.7897022962570190e-02   1.1027032136917114e-01   1.8625913560390472e-01   3.8123194128274918e-02   6.4183235168457031e-02   -2.3854467272758484e-01   -2.4697457253932953e-01   5.1818713545799255e-03   2.0585615187883377e-02   3.6237925291061401e-01   2.7549532055854797e-01   -4.2891271412372589e-02   2.3288667201995850e-01   1.0427084565162659e-01   5.4389572143554688e-01   5.0904929637908936e-01   -6.2500692903995514e-02   -1.5746715664863586e-01   -2.5755370035767555e-02   1.3023626804351807e-01   3.3466809988021851e-01   -2.1271646022796631e-02   4.6770758926868439e-02   3.7715364247560501e-02   -1.1282585561275482e-02   -6.8495996296405792e-02   -9.5141030848026276e-02   -1.7878577113151550e-01   -2.1996997296810150e-01   -1.9305731356143951e-01   -1.9630493223667145e-01   -1.1854434013366699e-01   -1.3103039562702179e-01   1.4327238500118256e-01   -1.9332164525985718e-01   -1.7130345106124878e-01   -2.2825658321380615e-01   2.8006635606288910e-02   -2.5821566581726074e-01   -1.6700026392936707e-01   -1.4381459355354309e-01   -2.4242736399173737e-01   -2.1560078859329224e-01   -2.6817238330841064e-01   -2.5290417671203613e-01   5.8344006538391113e-04   2.4778322875499725e-01   -2.6016481220722198e-02   -8.4645822644233704e-02   3.1261599063873291e-01   1.0654839873313904e-01   -1.2467417120933533e-01   4.5289093255996704e-01   -1.9437317550182343e-01   5.1343315839767456e-01   -1.4464071393013000e-01   -8.4145605564117432e-02   1.8022564053535461e-01   4.5563903450965881e-01   -1.7768520116806030e-01   -1.6331902146339417e-01   -1.1705572903156281e-01   -1.5033073723316193e-01   -1.8755754828453064e-01   -1.7699569463729858e-01   -1.4850790798664093e-01   -2.2333271801471710e-01   </DataArray> 
</CellData> 
</Piece>
</UnstructuredGrid>
</VTKFile>